LAMMPS (16 Mar 2018)
# Lennard-Jones Argon

units		metal
atom_style	atomic
boundary    p p p

lattice		fcc 5.26
Lattice spacing in x,y,z = 5.26 5.26 5.26
region		box block 0 10 0 10 0 10
create_box	1 box
Created orthogonal box = (0 0 0) to (52.6 52.6 52.6)
  1 by 1 by 1 MPI processor grid
create_atoms	1 box
Created 4000 atoms
  Time spent = 0.00186801 secs
mass		1 39.948

velocity	all create 100 87287

pair_style	lj/cut 8.5
pair_coeff	1 1 0.0104 3.4

neighbor	    0.3 bin
neigh_modify	every 1 delay 0 check no

variable    dt equal 0.002  # ps
variable    t equal step*v_dt  # ps

thermo		1
thermo_style custom v_t temp etotal

timestep    ${dt}
timestep    0.002
fix		    rlx all nve #temp 100 100 0.1
fix         nvt all temp/berendsen 100 100 0.02
run		    500
Neighbor list info ...
  update every 1 steps, delay 0 steps, check no
  max neighbors/atom: 2000, page size: 100000
  master list distance cutoff = 8.8
  ghost atom cutoff = 8.8
  binsize = 4.4, bins = 12 12 12
  1 neighbor lists, perpetual/occasional/extra = 1 0 0
  (1) pair lj/cut, perpetual
      attributes: half, newton on
      pair build: half/bin/atomonly/newton
      stencil: half/bin/3d/newton
      bin: standard
Per MPI rank memory allocation (min/avg/max) = 3.221 | 3.221 | 3.221 Mbytes
v_t Temp TotEng 
           0          100   -285.22001 
       0.002    99.972147   -285.21841 
       0.004    99.891394   -285.21217 
       0.006     99.76308   -285.19856 
       0.008    99.592035   -285.17512 
        0.01    99.382625   -285.13966 
       0.012    99.138791   -285.09019 
       0.014    98.864089   -285.02495 
       0.016    98.561728   -284.94233 
       0.018    98.234599   -284.84093 
        0.02    97.885309   -284.71946 
       0.022    97.516207    -284.5768 
       0.024     97.12941   -284.41191 
       0.026     96.72683    -284.2239 
       0.028    96.310191   -284.01196 
        0.03    95.881052   -283.77538 
       0.032    95.440831   -283.51299 
       0.034    94.990834   -283.22204 
       0.036    94.532289   -282.89796 
       0.038    94.066335   -282.54084 
        0.04    93.594012    -282.1503 
       0.042    93.116301   -281.72095 
       0.044    92.634097   -281.26069 
       0.046    92.148204   -280.76742 
       0.048    91.659416   -280.23726 
        0.05    91.168484   -279.67584 
       0.052    90.676136   -279.07799 
       0.054    90.183066   -278.45539 
       0.056     89.68997   -277.79529 
       0.058    89.197533   -277.11827 
        0.06    88.706423    -276.4132 
       0.062    88.217402   -275.67546 
       0.064     87.73126   -274.91251 
       0.066    87.248802    -274.1227 
       0.068    86.770886   -273.30729 
        0.07     86.29843    -272.4627 
       0.072    85.832394   -271.59728 
       0.074      85.3738   -270.70399 
       0.076    84.923733    -269.7901 
       0.078    84.483346   -268.84988 
        0.08    84.053858   -267.88975 
       0.082    83.636583   -266.89699 
       0.084    83.232895   -265.88663 
       0.086    82.844214   -264.85242 
       0.088    82.472037   -263.79902 
        0.09    82.117913   -262.72852 
       0.092    81.783451   -261.63811 
       0.094    81.470305   -260.53362 
       0.096    81.180164   -259.41585 
       0.098    80.914764   -258.28131 
         0.1     80.67585   -257.13609 
       0.102    80.465161   -255.97997 
       0.104    80.284439   -254.81023 
       0.106    80.135392   -253.63109 
       0.108    80.019654   -252.44955 
        0.11    79.938776    -251.2632 
       0.112      79.8942   -250.07939 
       0.114    79.887233   -248.89365 
       0.116    79.919046   -247.70772 
       0.118    79.990601   -246.53116 
        0.12    80.102647   -245.35528 
       0.122    80.255692   -244.19737 
       0.124     80.44996   -243.04741 
       0.126    80.685389   -241.91234 
       0.128    80.961612     -240.794 
        0.13    81.277936   -239.69673 
       0.132    81.633328   -238.61922 
       0.134    82.026423   -237.56158 
       0.136    82.455491    -236.5354 
       0.138    82.918463   -235.53277 
        0.14    83.412968   -234.56127 
       0.142    83.936324   -233.62122 
       0.144     84.48558   -232.70916 
       0.146    85.057539   -231.83387 
       0.148    85.648783   -230.99221 
        0.15    86.255732    -230.1873 
       0.152    86.874701   -229.41557 
       0.154    87.501917   -228.68157 
       0.156    88.133572   -227.98318 
       0.158    88.765887   -227.32197 
        0.16    89.395113   -226.69877 
       0.162    90.017617   -226.11149 
       0.164    90.629925   -225.56635 
       0.166    91.228746   -225.04848 
       0.168    91.811026   -224.57049 
        0.17    92.373929   -224.12093 
       0.172    92.914875    -223.7043 
       0.174    93.431594    -223.3126 
       0.176    93.922109   -222.95229 
       0.178    94.384732   -222.61583 
        0.18    94.818081   -222.30968 
       0.182    95.221085   -222.02463 
       0.184    95.592963   -221.76111 
       0.186    95.933216   -221.52204 
       0.188    96.241628   -221.29847 
        0.19    96.518243   -221.09078 
       0.192    96.763356   -220.90021 
       0.194    96.977482   -220.71633 
       0.196    97.161358   -220.54335 
       0.198    97.315906   -220.38398 
         0.2    97.442218    -220.2305 
       0.202    97.541542   -220.08323 
       0.204    97.615254   -219.93984 
       0.206    97.664846   -219.79946 
       0.208    97.691905   -219.66097 
        0.21    97.698084   -219.52163 
       0.212    97.685113   -219.38409 
       0.214    97.654767   -219.24514 
       0.216    97.608843   -219.10337 
       0.218    97.549153   -218.95681 
        0.22      97.4775   -218.80613 
       0.222    97.395696    -218.6477 
       0.224    97.305521   -218.49137 
       0.226    97.208728   -218.32693 
       0.228     97.10702   -218.15818 
        0.23    97.002045   -217.97677 
       0.232    96.895399   -217.79179 
       0.234    96.788588   -217.60117 
       0.236    96.683071   -217.40144 
       0.238    96.580201   -217.19919 
        0.24    96.481231   -216.98515 
       0.242    96.387347   -216.77046 
       0.244    96.299602   -216.55209 
       0.246    96.218943   -216.33045 
       0.248    96.146216    -216.1048 
        0.25    96.082166   -215.87718 
       0.252    96.027443   -215.64318 
       0.254    95.982565   -215.40831 
       0.256    95.947931   -215.17315 
       0.258    95.923859   -214.93576 
        0.26    95.910562   -214.69541 
       0.262    95.908143   -214.45729 
       0.264    95.916635   -214.21542 
       0.266     95.93598   -213.97585 
       0.268    95.966036   -213.74192 
        0.27    96.006577   -213.50778 
       0.272      96.0573   -213.27774 
       0.274     96.11787   -213.05185 
       0.276    96.187908   -212.82983 
       0.278    96.266994    -212.6132 
        0.28    96.354671   -212.40093 
       0.282    96.450447   -212.19451 
       0.284    96.553816   -211.99198 
       0.286    96.664254   -211.79444 
       0.288    96.781219   -211.60549 
        0.29    96.904186   -211.42445 
       0.292    97.032642   -211.25062 
       0.294    97.166064    -211.0831 
       0.296    97.303944   -210.92605 
       0.298    97.445787   -210.77511 
         0.3    97.591089   -210.63217 
       0.302    97.739367   -210.50216 
       0.304    97.890164   -210.37165 
       0.306    98.043032   -210.25706 
       0.308    98.197529   -210.15472 
        0.31    98.353243   -210.05812 
       0.312    98.509777   -209.97134 
       0.314    98.666752   -209.89104 
       0.316    98.823795   -209.81705 
       0.318     98.98051   -209.75698 
        0.32    99.136524   -209.70401 
       0.322    99.291486   -209.66265 
       0.324    99.445043   -209.62943 
       0.326    99.596857   -209.60409 
       0.328    99.746622   -209.58921 
        0.33    99.894039    -209.5806 
       0.332     100.0388   -209.58064 
       0.334    100.18062   -209.59188 
       0.336    100.31921   -209.60803 
       0.338    100.45433   -209.63075 
        0.34    100.58573   -209.66815 
       0.342    100.71318    -209.7054 
       0.344    100.83649   -209.75312 
       0.346    100.95551   -209.80887 
       0.348    101.07007   -209.86424 
        0.35    101.18007   -209.92881 
       0.352    101.28543   -210.00435 
       0.354    101.38605   -210.08228 
       0.356    101.48192   -210.16403 
       0.358    101.57303   -210.25151 
        0.36     101.6594   -210.34633 
       0.362    101.74105   -210.44431 
       0.364    101.81806   -210.54586 
       0.366    101.89051   -210.65208 
       0.368    101.95851   -210.76102 
        0.37    102.02214    -210.8748 
       0.372    102.08154   -210.99403 
       0.374    102.13684   -211.11304 
       0.376    102.18815   -211.23482 
       0.378     102.2356   -211.36307 
        0.38    102.27931   -211.49195 
       0.382    102.31939   -211.62586 
       0.384    102.35593   -211.75897 
       0.386    102.38904   -211.89468 
       0.388    102.41883   -212.03158 
        0.39    102.44537   -212.16797 
       0.392    102.46874   -212.30927 
       0.394    102.48902    -212.4558 
       0.396    102.50625   -212.59941 
       0.398    102.52049     -212.743 
         0.4    102.53181    -212.8886 
       0.402     102.5403   -213.03146 
       0.404    102.54599   -213.17618 
       0.406    102.54894   -213.31953 
       0.408    102.54924   -213.46579 
        0.41    102.54698   -213.61107 
       0.412    102.54225   -213.75693 
       0.414    102.53515   -213.90374 
       0.416    102.52579   -214.05068 
       0.418    102.51428    -214.1951 
        0.42    102.50073    -214.3367 
       0.422     102.4853   -214.47775 
       0.424    102.46812   -214.61917 
       0.426    102.44936   -214.76223 
       0.428    102.42916   -214.89819 
        0.43    102.40771   -215.03784 
       0.432    102.38516   -215.17517 
       0.434    102.36167   -215.30726 
       0.436    102.33742   -215.43811 
       0.438     102.3126   -215.57094 
        0.44    102.28735   -215.70452 
       0.442    102.26186   -215.83443 
       0.444    102.23628   -215.95982 
       0.446    102.21079   -216.08815 
       0.448    102.18554   -216.21215 
        0.45    102.16069   -216.33709 
       0.452    102.13639   -216.45912 
       0.454    102.11278   -216.58131 
       0.456    102.09001   -216.70389 
       0.458     102.0682   -216.82438 
        0.46    102.04748   -216.93874 
       0.462    102.02797   -217.05556 
       0.464    102.00978   -217.17116 
       0.466      101.993   -217.28766 
       0.468     101.9777   -217.40192 
        0.47    101.96396   -217.51472 
       0.472    101.95184   -217.62852 
       0.474    101.94136   -217.74138 
       0.476    101.93256   -217.85305 
       0.478    101.92542   -217.96533 
        0.48    101.91992     -218.079 
       0.482    101.91605   -218.18888 
       0.484    101.91375   -218.29812 
       0.486    101.91294   -218.40884 
       0.488    101.91351   -218.51943 
        0.49    101.91536   -218.63046 
       0.492    101.91836   -218.74659 
       0.494    101.92238   -218.85396 
       0.496    101.92725   -218.96635 
       0.498    101.93281   -219.07924 
         0.5    101.93888   -219.18738 
       0.502    101.94528    -219.2981 
       0.504    101.95182   -219.40988 
       0.506    101.95828   -219.52152 
       0.508    101.96451   -219.63233 
        0.51    101.97033   -219.74687 
       0.512    101.97558   -219.86595 
       0.514    101.98012   -219.98325 
       0.516    101.98381   -220.09669 
       0.518    101.98654   -220.21199 
        0.52    101.98822   -220.32603 
       0.522    101.98878   -220.44247 
       0.524    101.98818   -220.55717 
       0.526     101.9864   -220.67347 
       0.528    101.98345    -220.7891 
        0.53     101.9794   -220.90397 
       0.532    101.97432   -221.02178 
       0.534    101.96829   -221.13365 
       0.536    101.96145   -221.25106 
       0.538    101.95397   -221.36227 
        0.54    101.94599   -221.47709 
       0.542    101.93771   -221.59245 
       0.544    101.92929   -221.70208 
       0.546    101.92086   -221.81002 
       0.548    101.91265   -221.92038 
        0.55    101.90484   -222.03165 
       0.552     101.8976   -222.13792 
       0.554    101.89111   -222.25077 
       0.556    101.88551   -222.35923 
       0.558    101.88097   -222.46896 
        0.56     101.8776   -222.57662 
       0.562    101.87552   -222.68655 
       0.564    101.87481   -222.79168 
       0.566    101.87556   -222.90331 
       0.568    101.87778   -223.01268 
        0.57    101.88152   -223.12125 
       0.572    101.88683   -223.23352 
       0.574    101.89365   -223.34228 
       0.576    101.90195   -223.45118 
       0.578    101.91169   -223.55894 
        0.58    101.92279   -223.67006 
       0.582    101.93516   -223.77985 
       0.584    101.94871   -223.89348 
       0.586    101.96335   -224.00862 
       0.588    101.97896   -224.12297 
        0.59     101.9954   -224.23639 
       0.592    102.01256   -224.35589 
       0.594     102.0303   -224.47658 
       0.596    102.04848   -224.59865 
       0.598    102.06699   -224.72129 
         0.6    102.08569    -224.8416 
       0.602    102.10447   -224.96553 
       0.604    102.12321    -225.0868 
       0.606    102.14178   -225.21085 
       0.608     102.1601   -225.33662 
        0.61    102.17808   -225.46155 
       0.612    102.19563   -225.58937 
       0.614    102.21266   -225.71765 
       0.616    102.22912   -225.84823 
       0.618    102.24495   -225.97955 
        0.62     102.2601   -226.10903 
       0.622    102.27456   -226.23917 
       0.624    102.28827   -226.37434 
       0.626    102.30118   -226.50855 
       0.628    102.31328   -226.64312 
        0.63    102.32454   -226.78037 
       0.632    102.33494   -226.91263 
       0.634    102.34443   -227.04559 
       0.636    102.35298   -227.18278 
       0.638    102.36055   -227.31973 
        0.64    102.36708   -227.45806 
       0.642    102.37254   -227.59383 
       0.644    102.37687   -227.73307 
       0.646    102.38002   -227.87283 
       0.648    102.38192   -228.01186 
        0.65     102.3825   -228.15193 
       0.652    102.38167   -228.29077 
       0.654    102.37935   -228.42948 
       0.656    102.37548   -228.56966 
       0.658    102.36997   -228.71072 
        0.66    102.36276   -228.84594 
       0.662    102.35377   -228.98504 
       0.664    102.34292   -229.12336 
       0.666    102.33014   -229.25805 
       0.668     102.3154   -229.39072 
        0.67    102.29867   -229.52547 
       0.672    102.27995   -229.65643 
       0.674    102.25921   -229.79196 
       0.676    102.23648    -229.9223 
       0.678    102.21182    -230.0507 
        0.68    102.18528   -230.17741 
       0.682    102.15691   -230.30316 
       0.684    102.12677   -230.43059 
       0.686    102.09498   -230.55108 
       0.688    102.06163   -230.66848 
        0.69    102.02686   -230.78796 
       0.692    101.99082   -230.90519 
       0.694    101.95362   -231.02215 
       0.696    101.91541    -231.1342 
       0.698    101.87634   -231.24315 
         0.7    101.83656   -231.35169 
       0.702     101.7962   -231.45808 
       0.704    101.75539     -231.564 
       0.706    101.71428   -231.66602 
       0.708    101.67298   -231.76364 
        0.71    101.63163   -231.86024 
       0.712     101.5903   -231.95158 
       0.714    101.54911   -232.03801 
       0.716    101.50812   -232.12718 
       0.718     101.4674   -232.21315 
        0.72      101.427   -232.29529 
       0.722    101.38693   -232.37444 
       0.724    101.34721   -232.44622 
       0.726    101.30782   -232.52491 
       0.728    101.26878   -232.59914 
        0.73    101.23006     -232.672 
       0.732    101.19164   -232.74248 
       0.734    101.15348   -232.81179 
       0.736    101.11553   -232.87638 
       0.738    101.07775   -232.93846 
        0.74     101.0401   -232.99973 
       0.742    101.00255     -233.058 
       0.744    100.96509   -233.11241 
       0.746    100.92769   -233.16977 
       0.748    100.89034   -233.22006 
        0.75    100.85305   -233.26889 
       0.752    100.81586   -233.32152 
       0.754    100.77884   -233.37033 
       0.756    100.74202   -233.41414 
       0.758    100.70548   -233.45754 
        0.76    100.66932   -233.49717 
       0.762    100.63367   -233.53339 
       0.764    100.59865   -233.57218 
       0.766     100.5644   -233.60562 
       0.768    100.53106   -233.63696 
        0.77    100.49877   -233.66594 
       0.772    100.46771   -233.69364 
       0.774    100.43805   -233.72083 
       0.776    100.40994   -233.74845 
       0.778    100.38355   -233.77301 
        0.78      100.359   -233.79362 
       0.782    100.33644   -233.81395 
       0.784      100.316   -233.83226 
       0.786    100.29779   -233.85037 
       0.788    100.28189   -233.86673 
        0.79    100.26836   -233.88332 
       0.792    100.25724   -233.90318 
       0.794    100.24858   -233.91711 
       0.796    100.24239   -233.93374 
       0.798    100.23863   -233.94981 
         0.8    100.23726   -233.96599 
       0.802    100.23826   -233.98119 
       0.804    100.24154   -233.99964 
       0.806    100.24698   -234.01518 
       0.808    100.25448   -234.02776 
        0.81    100.26394   -234.04462 
       0.812    100.27521   -234.06196 
       0.814    100.28814   -234.08089 
       0.816    100.30261   -234.09928 
       0.818    100.31849   -234.12148 
        0.82     100.3356   -234.13821 
       0.822    100.35379   -234.15837 
       0.824    100.37291   -234.18182 
       0.826    100.39282   -234.20184 
       0.828    100.41335   -234.22576 
        0.83    100.43432   -234.24748 
       0.832    100.45558   -234.27349 
       0.834    100.47701    -234.2992 
       0.836    100.49843   -234.32919 
       0.838    100.51969   -234.36227 
        0.84    100.54066   -234.39893 
       0.842    100.56121   -234.43457 
       0.844     100.5812   -234.46983 
       0.846    100.60051   -234.50874 
       0.848    100.61905   -234.54498 
        0.85    100.63674   -234.58122 
       0.852    100.65349   -234.61961 
       0.854    100.66919   -234.65992 
       0.856    100.68378   -234.70004 
       0.858     100.6972   -234.73908 
        0.86    100.70943   -234.78119 
       0.862    100.72043   -234.82444 
       0.864    100.73018    -234.8647 
       0.866    100.73865   -234.91018 
       0.868    100.74585   -234.95778 
        0.87    100.75175   -235.00198 
       0.872    100.75637   -235.05018 
       0.874    100.75969   -235.09568 
       0.876    100.76176   -235.13893 
       0.878    100.76258    -235.1863 
        0.88    100.76215    -235.2311 
       0.882     100.7605   -235.27444 
       0.884    100.75767   -235.31796 
       0.886    100.75368   -235.36668 
       0.888    100.74855   -235.41868 
        0.89    100.74231   -235.46404 
       0.892    100.73501   -235.50999 
       0.894    100.72666   -235.55258 
       0.896    100.71733   -235.59769 
       0.898    100.70705   -235.63745 
         0.9    100.69586   -235.68234 
       0.902    100.68386   -235.72162 
       0.904    100.67109   -235.76068 
       0.906     100.6576   -235.79624 
       0.908    100.64348   -235.83421 
        0.91     100.6288    -235.8722 
       0.912    100.61363   -235.90914 
       0.914    100.59801   -235.93993 
       0.916    100.58201   -235.97505 
       0.918    100.56568   -236.00907 
        0.92    100.54911   -236.04451 
       0.922    100.53234   -236.08069 
       0.924    100.51544   -236.11708 
       0.926    100.49846   -236.14537 
       0.928    100.48143   -236.17471 
        0.93     100.4644   -236.20529 
       0.932    100.44738   -236.23132 
       0.934    100.43043   -236.25809 
       0.936    100.41362   -236.28354 
       0.938    100.39698    -236.3077 
        0.94    100.38056   -236.33159 
       0.942    100.36442   -236.35014 
       0.944    100.34862   -236.37763 
       0.946    100.33323   -236.39304 
       0.948    100.31832   -236.41658 
        0.95    100.30396   -236.43387 
       0.952     100.2902   -236.45002 
       0.954     100.2771   -236.47255 
       0.956    100.26472   -236.48724 
       0.958    100.25311   -236.50398 
        0.96    100.24232   -236.51942 
       0.962    100.23241   -236.53633 
       0.964    100.22341   -236.54949 
       0.966    100.21533   -236.56966 
       0.968    100.20819   -236.58196 
        0.97    100.20198   -236.59509 
       0.972    100.19667   -236.60417 
       0.974    100.19223   -236.61776 
       0.976    100.18861    -236.6313 
       0.978    100.18574   -236.64264 
        0.98    100.18356   -236.65319 
       0.982    100.18199   -236.66907 
       0.984    100.18093   -236.67998 
       0.986    100.18029   -236.69323 
       0.988    100.17996   -236.70408 
        0.99    100.17984   -236.71576 
       0.992    100.17984   -236.72847 
       0.994    100.17984   -236.74118 
       0.996    100.17974   -236.75304 
       0.998    100.17948   -236.76166 
           1    100.17895   -236.77924 
Loop time of 5.01187 on 1 procs for 500 steps with 4000 atoms

Performance: 17.239 ns/day, 1.392 hours/ns, 99.763 timesteps/s
100.0% CPU use with 1 MPI tasks x no OpenMP threads

MPI task timing breakdown:
Section |  min time  |  avg time  |  max time  |%varavg| %total
---------------------------------------------------------------
Pair    | 1.8989     | 1.8989     | 1.8989     |   0.0 | 37.89
Neigh   | 2.9809     | 2.9809     | 2.9809     |   0.0 | 59.48
Comm    | 0.072681   | 0.072681   | 0.072681   |   0.0 |  1.45
Output  | 0.016113   | 0.016113   | 0.016113   |   0.0 |  0.32
Modify  | 0.030192   | 0.030192   | 0.030192   |   0.0 |  0.60
Other   |            | 0.01303    |            |       |  0.26

Nlocal:    4000 ave 4000 max 4000 min
Histogram: 1 0 0 0 0 0 0 0 0 0
Nghost:    5841 ave 5841 max 5841 min
Histogram: 1 0 0 0 0 0 0 0 0 0
Neighs:    154628 ave 154628 max 154628 min
Histogram: 1 0 0 0 0 0 0 0 0 0

Total # of neighbors = 154628
Ave neighs/atom = 38.657
Neighbor list builds = 500
Dangerous builds not checked
Total wall time: 0:00:05
