LAMMPS (16 Mar 2018)
# Lennard-Jones Argon

units		metal
atom_style	atomic
boundary    p p p

lattice		fcc 5.26
Lattice spacing in x,y,z = 5.26 5.26 5.26
region		box block 0 10 0 10 0 10
create_box	1 box
Created orthogonal box = (0 0 0) to (52.6 52.6 52.6)
  1 by 1 by 1 MPI processor grid
create_atoms	1 box
Created 4000 atoms
  Time spent = 0.00183201 secs
mass		1 39.948

velocity	all create 100 87287

#pair_style	lj/cut 8.5
#pair_coeff	1 1 0.0104 3.4

pair_style morse 8.5
pair_coeff 1 1 0.010177 1.253 4.13

neighbor	    0.3 bin
neigh_modify	every 1 delay 0 check no

variable    dt equal 0.002  # ps
variable    t equal step*v_dt  # ps

thermo		1
thermo_style custom v_t temp etotal

timestep    ${dt}
timestep    0.002
fix		    rlx all nve #temp 100 100 0.1
fix         nvt all temp/berendsen 100 100 0.02
run		    500
Neighbor list info ...
  update every 1 steps, delay 0 steps, check no
  max neighbors/atom: 2000, page size: 100000
  master list distance cutoff = 8.8
  ghost atom cutoff = 8.8
  binsize = 4.4, bins = 12 12 12
  1 neighbor lists, perpetual/occasional/extra = 1 0 0
  (1) pair morse, perpetual
      attributes: half, newton on
      pair build: half/bin/atomonly/newton
      stencil: half/bin/3d/newton
      bin: standard
Per MPI rank memory allocation (min/avg/max) = 3.221 | 3.221 | 3.221 Mbytes
v_t Temp TotEng 
           0          100   -199.30866 
       0.002    99.963074   -199.30654 
       0.004    99.856057   -199.29826 
       0.006    99.686157   -199.28022 
       0.008    99.459977   -199.24919 
        0.01    99.183562   -199.20228 
       0.012    98.862445   -199.13691 
       0.014    98.501692   -199.05083 
       0.016    98.105937   -198.94201 
       0.018    97.679424   -198.80868 
        0.02    97.226032   -198.64931 
       0.022    96.749318   -198.46256 
       0.024    96.252536   -198.24727 
       0.026    95.738669   -198.00246 
       0.028    95.210451   -197.72731 
        0.03    94.670395   -197.42113 
       0.032     94.12081   -197.08322 
       0.034    93.563839   -196.71186 
       0.036    93.001487    -196.3053 
       0.038    92.435626   -195.86233 
        0.04    91.867966   -195.38522 
       0.042    91.300118   -194.86868 
       0.044    90.733577   -194.31765 
       0.046    90.169686   -193.73304 
       0.048    89.609733   -193.11107 
        0.05    89.054939    -192.4546 
       0.052    88.506432   -191.76526 
       0.054    87.965269   -191.04432 
       0.056    87.432489   -190.28852 
       0.058    86.909043   -189.50947 
        0.06    86.395835   -188.70007 
       0.062    85.893815   -187.85989 
       0.064    85.403908   -186.99191 
       0.066    84.926999   -186.09848 
       0.068    84.463975   -185.17795 
        0.07    84.015727   -184.23286 
       0.072    83.583139   -183.26319 
       0.074    83.167102   -182.27021 
       0.076    82.768499   -181.25602 
       0.078    82.388219   -180.22103 
        0.08    82.027168   -179.16554 
       0.082    81.686265   -178.08953 
       0.084    81.366434   -176.99355 
       0.086    81.068583   -175.88385 
       0.088    80.793627   -174.75616 
        0.09    80.542477   -173.61659 
       0.092    80.316028   -172.46401 
       0.094    80.115163   -171.30254 
       0.096    79.940757   -170.13011 
       0.098    79.793659   -168.95222 
         0.1    79.674685   -167.76673 
       0.102    79.584622   -166.57632 
       0.104     79.52421   -165.38152 
       0.106    79.494126   -164.18601 
       0.108    79.494976   -162.99183 
        0.11    79.527289   -161.79901 
       0.112    79.591501   -160.61031 
       0.114    79.687942   -159.42842 
       0.116    79.816835   -158.25472 
       0.118    79.978276   -157.08953 
        0.12    80.172209   -155.93702 
       0.122    80.398437   -154.79649 
       0.124    80.656616   -153.67225 
       0.126    80.946224   -152.56388 
       0.128    81.266548   -151.47563 
        0.13    81.616703   -150.40758 
       0.132    81.995622   -149.36165 
       0.134    82.402043   -148.33958 
       0.136    82.834532   -147.34254 
       0.138    83.291456   -146.37498 
        0.14     83.77101   -145.43447 
       0.142    84.271233   -144.52134 
       0.144    84.790006   -143.63784 
       0.146     85.32506    -142.7861 
       0.148    85.874007   -141.96489 
        0.15    86.434348   -141.17689 
       0.152    87.003501   -140.42277 
       0.154    87.578815    -139.7018 
       0.156     88.15761   -139.01356 
       0.158    88.737188   -138.36031 
        0.16    89.314837   -137.73932 
       0.162    89.887886   -137.15346 
       0.164     90.45374    -136.5978 
       0.166    91.009877   -136.07562 
       0.168    91.553862   -135.58316 
        0.17    92.083384   -135.12298 
       0.172    92.596264   -134.69217 
       0.174    93.090504   -134.29009 
       0.176    93.564267   -133.91717 
       0.178     94.01588   -133.56782 
        0.18    94.443874   -133.24381 
       0.182    94.846959   -132.94362 
       0.184    95.224049   -132.66407 
       0.186    95.574273   -132.40548 
       0.188    95.896944   -132.16474 
        0.19    96.191567   -131.94134 
       0.192    96.457854    -131.7334 
       0.194    96.695721   -131.53962 
       0.196    96.905278   -131.35856 
       0.198    97.086771    -131.1868 
         0.2    97.240603   -131.02541 
       0.202     97.36736   -130.87043 
       0.204    97.467766   -130.72037 
       0.206    97.542685   -130.57443 
       0.208    97.593088   -130.43334 
        0.21    97.620041   -130.29464 
       0.212    97.624718   -130.15527 
       0.214    97.608393   -130.01333 
       0.216    97.572406   -129.86982 
       0.218     97.51815   -129.72346 
        0.22     97.44708    -129.5747 
       0.222     97.36067   -129.41996 
       0.224    97.260425   -129.26123 
       0.226    97.147883   -129.09451 
       0.228    97.024585   -128.92018 
        0.23    96.892093   -128.73612 
       0.232    96.751954   -128.54774 
       0.234    96.605693   -128.35062 
       0.236    96.454814   -128.14474 
       0.238    96.300803   -127.92839 
        0.24    96.145098   -127.70625 
       0.242    95.989114   -127.47318 
       0.244    95.834227   -127.23181 
       0.246    95.681753   -126.98168 
       0.248    95.532948   -126.72122 
        0.25    95.389006   -126.45274 
       0.252    95.251069   -126.17617 
       0.254    95.120237    -125.8931 
       0.256    94.997541   -125.60196 
       0.258    94.883918    -125.3054 
        0.26    94.780254   -124.99973 
       0.262     94.68737   -124.69104 
       0.264    94.605999   -124.37911 
       0.266    94.536805   -124.06321 
       0.268    94.480373   -123.74373 
        0.27    94.437214   -123.42297 
       0.272    94.407759   -123.10068 
       0.274     94.39236   -122.77573 
       0.276    94.391306   -122.45216 
       0.278    94.404818   -122.13022 
        0.28    94.433032   -121.80829 
       0.282    94.476004   -121.48849 
       0.284     94.53372   -121.17175 
       0.286    94.606096   -120.85875 
       0.288    94.692967   -120.55116 
        0.29    94.794114   -120.24905 
       0.292    94.909248   -119.95423 
       0.294    95.038024   -119.66699 
       0.296     95.18003   -119.38859 
       0.298     95.33479   -119.11789 
         0.3    95.501787   -118.85712 
       0.302    95.680444   -118.60688 
       0.304    95.870148   -118.36778 
       0.306    96.070249   -118.14028 
       0.308    96.280032   -117.92542 
        0.31    96.498749   -117.72269 
       0.312    96.725636   -117.53531 
       0.314    96.959891   -117.35832 
       0.316    97.200688   -117.19788 
       0.318     97.44719   -117.05101 
        0.32     97.69855    -116.9179 
       0.322    97.953914   -116.79954 
       0.324    98.212407   -116.69451 
       0.326    98.473149   -116.60429 
       0.328    98.735278   -116.53167 
        0.33    98.997941   -116.47253 
       0.332     99.26027   -116.42837 
       0.334    99.521422   -116.40092 
       0.336    99.780603   -116.38845 
       0.338    100.03702   -116.38882 
        0.34     100.2899   -116.40508 
       0.342    100.53852   -116.43478 
       0.344    100.78217   -116.47847 
       0.346     101.0202   -116.53532 
       0.348      101.252   -116.60685 
        0.35    101.47695    -116.6913 
       0.352    101.69452   -116.78765 
       0.354     101.9042   -116.89825 
       0.356    102.10556   -117.01787 
       0.358     102.2982    -117.1494 
        0.36    102.48176   -117.28995 
       0.362    102.65595   -117.44186 
       0.364    102.82048   -117.60432 
       0.366    102.97517   -117.77346 
       0.368    103.11984   -117.95057 
        0.37    103.25436   -118.13591 
       0.372    103.37868   -118.32814 
       0.374    103.49274   -118.52742 
       0.376    103.59657   -118.73395 
       0.378    103.69025   -118.94611 
        0.38    103.77385   -119.16086 
       0.382    103.84749   -119.38129 
       0.384    103.91133   -119.60384 
       0.386    103.96559   -119.83139 
       0.388    104.01048   -120.06278 
        0.39    104.04626   -120.29479 
       0.392    104.07323   -120.52732 
       0.394    104.09169   -120.76116 
       0.396    104.10198   -120.99662 
       0.398    104.10445   -121.23316 
         0.4    104.09943   -121.46957 
       0.402     104.0873   -121.70546 
       0.404    104.06845   -121.93762 
       0.406    104.04326   -122.16833 
       0.408    104.01213   -122.39913 
        0.41    103.97547   -122.62756 
       0.412     103.9337   -122.85308 
       0.414    103.88721   -123.07636 
       0.416    103.83641   -123.29603 
       0.418    103.78171   -123.51044 
        0.42    103.72352   -123.72252 
       0.422    103.66221   -123.93329 
       0.424    103.59816   -124.14005 
       0.426    103.53175   -124.34086 
       0.428    103.46334   -124.53876 
        0.43    103.39328   -124.73382 
       0.432     103.3219   -124.92283 
       0.434    103.24953   -125.10947 
       0.436    103.17652   -125.29166 
       0.438    103.10315   -125.46998 
        0.44    103.02969   -125.64467 
       0.442     102.9564   -125.81464 
       0.444    102.88352    -125.9806 
       0.446    102.81131   -126.14283 
       0.448    102.74002    -126.2985 
        0.45    102.66986   -126.45261 
       0.452    102.60103   -126.60225 
       0.454     102.5337   -126.74803 
       0.456    102.46806   -126.89012 
       0.458    102.40425   -127.02862 
        0.46    102.34244   -127.16315 
       0.462    102.28276    -127.2946 
       0.464    102.22535   -127.42173 
       0.466    102.17031   -127.54536 
       0.468    102.11778   -127.66545 
        0.47    102.06784   -127.78302 
       0.472    102.02059   -127.90077 
       0.474     101.9761   -128.01435 
       0.476    101.93446   -128.12587 
       0.478    101.89574   -128.23585 
        0.48       101.86   -128.34361 
       0.482     101.8273   -128.44898 
       0.484    101.79765   -128.55129 
       0.486    101.77109   -128.65283 
       0.488    101.74765   -128.75363 
        0.49    101.72736   -128.85208 
       0.492    101.71022   -128.95123 
       0.494    101.69625    -129.0478 
       0.496    101.68543   -129.14383 
       0.498    101.67774   -129.23968 
         0.5    101.67316   -129.33543 
       0.502    101.67165    -129.4305 
       0.504     101.6732   -129.52702 
       0.506    101.67779   -129.62653 
       0.508    101.68534   -129.72332 
        0.51    101.69581   -129.81962 
       0.512    101.70913   -129.91761 
       0.514    101.72518   -130.01779 
       0.516    101.74387   -130.11769 
       0.518    101.76512   -130.21822 
        0.52     101.7888     -130.323 
       0.522    101.81479   -130.42732 
       0.524      101.843   -130.53275 
       0.526     101.8733   -130.64111 
       0.528    101.90553   -130.75209 
        0.53    101.93958   -130.86477 
       0.532    101.97526   -130.97831 
       0.534    102.01244   -131.09552 
       0.536    102.05096   -131.21477 
       0.538    102.09065   -131.33613 
        0.54    102.13133   -131.45898 
       0.542    102.17283   -131.58667 
       0.544      102.215   -131.71501 
       0.546    102.25764   -131.84563 
       0.548    102.30059   -131.97726 
        0.55    102.34367   -132.11222 
       0.552    102.38669   -132.24966 
       0.554    102.42947   -132.38895 
       0.556    102.47186    -132.5311 
       0.558    102.51368   -132.67779 
        0.56    102.55477   -132.82479 
       0.562    102.59499   -132.97342 
       0.564    102.63418   -133.12533 
       0.566    102.67219    -133.2795 
       0.568    102.70887   -133.43451 
        0.57    102.74406   -133.59435 
       0.572    102.77766     -133.755 
       0.574    102.80957     -133.918 
       0.576    102.83968   -134.08316 
       0.578    102.86789   -134.24789 
        0.58    102.89413   -134.41498 
       0.582    102.91832    -134.5821 
       0.584    102.94038   -134.75202 
       0.586    102.96028   -134.92435 
       0.588    102.97794   -135.09549 
        0.59    102.99333   -135.26811 
       0.592    103.00645   -135.44165 
       0.594    103.01727   -135.61624 
       0.596    103.02575   -135.78995 
       0.598     103.0319   -135.96513 
         0.6    103.03574   -136.14069 
       0.602    103.03728   -136.31711 
       0.604    103.03658   -136.49205 
       0.606    103.03364   -136.66843 
       0.608     103.0285   -136.84374 
        0.61    103.02117   -137.01754 
       0.612    103.01171   -137.19078 
       0.614    103.00017   -137.36379 
       0.616     102.9866   -137.53678 
       0.618    102.97108    -137.7077 
        0.62    102.95363   -137.87812 
       0.622    102.93432   -138.04743 
       0.624    102.91321   -138.21603 
       0.626    102.89038   -138.38341 
       0.628    102.86591   -138.55219 
        0.63    102.83987    -138.7148 
       0.632    102.81233   -138.87846 
       0.634    102.78338    -139.0385 
       0.636    102.75308   -139.19834 
       0.638     102.7215   -139.35449 
        0.64    102.68872   -139.50909 
       0.642    102.65482   -139.66464 
       0.644    102.61986   -139.81682 
       0.646    102.58393   -139.96754 
       0.648    102.54712   -140.11341 
        0.65    102.50951     -140.259 
       0.652    102.47116   -140.40298 
       0.654    102.43217   -140.54395 
       0.656    102.39259   -140.68103 
       0.658    102.35249   -140.81828 
        0.66    102.31195   -140.95099 
       0.662    102.27105   -141.08279 
       0.664    102.22985    -141.2112 
       0.666    102.18846   -141.33792 
       0.668    102.14694   -141.46277 
        0.67    102.10534   -141.58556 
       0.672    102.06373   -141.70443 
       0.674    102.02217   -141.82296 
       0.676    101.98073   -141.93732 
       0.678    101.93944   -142.05059 
        0.68    101.89836    -142.1592 
       0.682    101.85755   -142.26564 
       0.684    101.81704   -142.36856 
       0.686     101.7769   -142.47232 
       0.688    101.73714   -142.57312 
        0.69     101.6978   -142.67115 
       0.692    101.65892   -142.76754 
       0.694    101.62053   -142.86215 
       0.696    101.58268   -142.95543 
       0.698    101.54537   -143.04427 
         0.7    101.50864   -143.13203 
       0.702    101.47247   -143.21703 
       0.704    101.43689   -143.29999 
       0.706    101.40192   -143.38144 
       0.708    101.36756   -143.46076 
        0.71    101.33383   -143.53915 
       0.712    101.30072   -143.61233 
       0.714    101.26822   -143.68662 
       0.716    101.23631   -143.75848 
       0.718    101.20504   -143.82957 
        0.72    101.17441   -143.89728 
       0.722    101.14442   -143.96343 
       0.724    101.11509   -144.02765 
       0.726     101.0864   -144.09159 
       0.728    101.05836   -144.15229 
        0.73    101.03096   -144.21303 
       0.732    101.00425   -144.27071 
       0.734    100.97822   -144.32698 
       0.736    100.95288   -144.38273 
       0.738    100.92825   -144.43664 
        0.74    100.90432   -144.48833 
       0.742     100.8811   -144.53842 
       0.744    100.85864   -144.59021 
       0.746    100.83696   -144.63879 
       0.748     100.8161   -144.68609 
        0.75    100.79607   -144.73249 
       0.752    100.77686   -144.77787 
       0.754    100.75851   -144.82178 
       0.756    100.74103   -144.86527 
       0.758    100.72447   -144.90816 
        0.76    100.70884   -144.95032 
       0.762    100.69419   -144.99265 
       0.764    100.68051   -145.03284 
       0.766    100.66786   -145.07162 
       0.768    100.65624   -145.11016 
        0.77    100.64568   -145.14972 
       0.772    100.63618   -145.18702 
       0.774    100.62774   -145.22358 
       0.776    100.62037   -145.25879 
       0.778    100.61408   -145.29533 
        0.78    100.60887   -145.33056 
       0.782    100.60472   -145.36563 
       0.784    100.60163    -145.4018 
       0.786    100.59958   -145.43614 
       0.788    100.59854   -145.47137 
        0.79     100.5985   -145.50608 
       0.792    100.59941   -145.54213 
       0.794    100.60126   -145.57717 
       0.796      100.604    -145.6111 
       0.798    100.60758   -145.64727 
         0.8    100.61198   -145.68344 
       0.802    100.61713   -145.72059 
       0.804    100.62298   -145.75509 
       0.806    100.62947   -145.79176 
       0.808    100.63653   -145.82917 
        0.81     100.6441   -145.86515 
       0.812    100.65212    -145.9021 
       0.814    100.66054   -145.94175 
       0.816    100.66927   -145.98172 
       0.818    100.67823   -146.02077 
        0.82    100.68734   -146.06152 
       0.822    100.69654   -146.10196 
       0.824    100.70574   -146.14599 
       0.826    100.71489   -146.18807 
       0.828    100.72392   -146.23068 
        0.83    100.73276   -146.27328 
       0.832    100.74133   -146.31629 
       0.834    100.74957   -146.36011 
       0.836    100.75743   -146.40455 
       0.838    100.76487   -146.44789 
        0.84    100.77182   -146.49256 
       0.842    100.77824   -146.53837 
       0.844     100.7841   -146.58512 
       0.846    100.78931   -146.63037 
       0.848    100.79385   -146.67546 
        0.85    100.79771   -146.72264 
       0.852    100.80085   -146.76839 
       0.854    100.80323   -146.81487 
       0.856    100.80484   -146.85881 
       0.858    100.80567   -146.90501 
        0.86    100.80568   -146.95239 
       0.862    100.80487   -146.99965 
       0.864    100.80324   -147.04579 
       0.866    100.80079   -147.09358 
       0.868    100.79747   -147.14176 
        0.87     100.7933   -147.18844 
       0.872    100.78829   -147.23508 
       0.874    100.78242   -147.28088 
       0.876    100.77569   -147.32611 
       0.878    100.76811   -147.36896 
        0.88    100.75968   -147.41345 
       0.882    100.75041   -147.45791 
       0.884    100.74031   -147.50146 
       0.886    100.72939   -147.54727 
       0.888    100.71766   -147.58857 
        0.89    100.70511   -147.62899 
       0.892    100.69176   -147.67145 
       0.894    100.67763   -147.71148 
       0.896    100.66275    -147.7504 
       0.898    100.64713   -147.78842 
         0.9    100.63079   -147.82696 
       0.902    100.61375   -147.86587 
       0.904    100.59606   -147.90061 
       0.906    100.57774   -147.93482 
       0.908     100.5588   -147.96811 
        0.91    100.53927    -147.9995 
       0.912    100.51919   -148.02907 
       0.914    100.49858   -148.05754 
       0.916    100.47746   -148.08573 
       0.918    100.45585   -148.11004 
        0.92     100.4338   -148.13572 
       0.922    100.41134   -148.15858 
       0.924    100.38852   -148.18303 
       0.926    100.36538   -148.20682 
       0.928    100.34192   -148.22714 
        0.93     100.3182   -148.24746 
       0.932    100.29426    -148.2653 
       0.934    100.27014   -148.28302 
       0.936     100.2459   -148.30012 
       0.938    100.22156   -148.31438 
        0.94    100.19719   -148.32494 
       0.942    100.17281   -148.33512 
       0.944    100.14844   -148.34517 
       0.946    100.12413   -148.35239 
       0.948    100.09992   -148.36034 
        0.95    100.07586   -148.36827 
       0.952    100.05198   -148.37151 
       0.954    100.02832   -148.37338 
       0.956    100.00492   -148.37392 
       0.958     99.98184    -148.3756 
        0.96    99.959128   -148.37589 
       0.962    99.936829   -148.37344 
       0.964    99.914983   -148.36847 
       0.966    99.893642   -148.36525 
       0.968    99.872854   -148.35863 
        0.97    99.852661   -148.34889 
       0.972    99.833106   -148.34134 
       0.974    99.814257   -148.33101 
       0.976    99.796154   -148.31921 
       0.978    99.778835    -148.3071 
        0.98    99.762345   -148.29378 
       0.982    99.746742   -148.27855 
       0.984     99.73209   -148.26511 
       0.986    99.718435   -148.24741 
       0.988    99.705812   -148.23238 
        0.99    99.694265   -148.21379 
       0.992    99.683833   -148.19392 
       0.994     99.67456   -148.17404 
       0.996    99.666489   -148.15479 
       0.998    99.659663   -148.13532 
           1    99.654093   -148.11494 
Loop time of 7.10904 on 1 procs for 500 steps with 4000 atoms

Performance: 12.154 ns/day, 1.975 hours/ns, 70.333 timesteps/s
99.9% CPU use with 1 MPI tasks x no OpenMP threads

MPI task timing breakdown:
Section |  min time  |  avg time  |  max time  |%varavg| %total
---------------------------------------------------------------
Pair    | 4.0076     | 4.0076     | 4.0076     |   0.0 | 56.37
Neigh   | 2.9687     | 2.9687     | 2.9687     |   0.0 | 41.76
Comm    | 0.072123   | 0.072123   | 0.072123   |   0.0 |  1.01
Output  | 0.017075   | 0.017075   | 0.017075   |   0.0 |  0.24
Modify  | 0.030583   | 0.030583   | 0.030583   |   0.0 |  0.43
Other   |            | 0.01301    |            |       |  0.18

Nlocal:    4000 ave 4000 max 4000 min
Histogram: 1 0 0 0 0 0 0 0 0 0
Nghost:    5841 ave 5841 max 5841 min
Histogram: 1 0 0 0 0 0 0 0 0 0
Neighs:    154577 ave 154577 max 154577 min
Histogram: 1 0 0 0 0 0 0 0 0 0

Total # of neighbors = 154577
Ave neighs/atom = 38.6442
Neighbor list builds = 500
Dangerous builds not checked
Total wall time: 0:00:07
